ITEM: TIMESTEP
0
ITEM: NUMBER OF ATOMS
72
ITEM: BOX BOUNDS pp pp pp
0.0000000000000000e+00 1.5000000000000000e+01
0.0000000000000000e+00 1.5000000000000000e+01
0.0000000000000000e+00 1.5000000000000000e+01
ITEM: ATOMS id mol element xu yu zu fx fy fz
1 1 C 12.6992 2.38384 9.69846 8.88704 -11.4259 -19.8401
2 1 C 11.7241 1.54907 10.4941 1126.91 -480.898 -427.588
3 1 C 12.9102 1.81632 8.28546 9.2654 9.59333 -4.55964
4 2 C 9.29745 3.85887 11.4589 22.2632 -36.1611 -13.0008
5 2 C 8.97557 4.18264 12.8985 862.141 -1310.96 -43.5899
6 2 C 9.718 2.39012 11.2885 -1139 477.54 440.217
7 3 C 10.1659 6.80241 6.11521 -430.968 -714.668 226.773
8 3 C 10.1482 7.79697 7.25154 -485.076 -1279.97 1346.87
9 3 C 8.7439 6.43466 5.66148 135.531 -177.113 90.2297
10 4 C 3.7152 7.55951 1.43501 -248.373 -140.723 -205.984
11 4 C 3.45482 8.29964 2.7254 -2555.22 -343.107 -66.8317
12 4 C 5.18135 7.11077 1.32473 -779.152 -2165.78 -1966.64
13 5 C 6.167 10.2488 10.6717 -36.6694 41.1076 -12.7585
14 5 C 6.49285 11.3222 11.6829 -166.123 44.4441 -24.6058
15 5 C 5.42999 10.8243 9.45157 38.0825 46.7683 108.754
16 6 C 5.25729 11.1681 0.660343 -20.8749 14.6612 -10.7874
17 6 C 5.42546 9.67473 0.809298 -109.431 1453.44 -2392.61
18 6 C 3.7837 11.5551 0.455562 2.17905 14.5859 -1.07702
19 7 C 5.29705 3.55658 12.783 -18.3384 -30.5874 -3.30557
20 7 C 3.79107 3.56872 12.8951 -19.8 -6.93906 16.2125
21 7 C 5.77111 4.15723 11.4497 -1748.54 -3494.72 -715.058
22 8 C 4.91668 8.64756 6.96042 27.9328 598.213 66.2187
23 8 C 4.6003 8.08674 8.32647 -106.275 326.587 124.553
24 8 C 4.58904 10.147 6.87336 6.00539 -15.2208 -88.7288
25 9 C 8.50725 7.84328 9.55673 145.688 163.912 123.355
26 9 C 7.49447 8.11464 8.46983 939.871 1679.23 -528.287
27 9 C 7.83707 7.6972 10.9325 394.37 2304.07 -3822.47
28 10 C 8.6955 9.16 2.48704 2058.62 1454.75 -2334.97
29 10 C 8.74745 10.3204 1.52193 6.40135 30.492 -6.76207
30 10 C 9.1885 7.85799 1.83522 206.61 -17.4859 -132.534
31 11 C 7.69313 1.16271 7.37121 676.525 -871.659 947.102
32 11 C 6.43475 1.05835 8.19964 -33.7774 -60.419 101.356
33 11 C 8.93004 0.700467 8.15832 9.06694 0.179179 -12.0085
34 12 C 7.73617 6.101 13.0033 -838.579 1189.38 296.848
35 12 C 6.74522 6.00441 11.8678 676.168 1713.3 1851.1
36 12 C 8.47208 7.45066 13.0003 865.511 -332.899 2819.31
37 13 C 5.96884 5.49547 7.94418 2520.3 89.6902 -754.247
38 13 C 6.50249 6.21731 9.15862 -809.482 -1893.3 265.315
39 13 C 5.94616 6.4076 6.70699 264.012 -625.189 -221.074
40 14 C 3.84758 5.35816 8.51941 -2590.96 -288.085 678.351
41 14 C 4.01084 5.77783 9.96091 -329.311 -18.5806 130.512
42 14 C 2.36602 5.21851 8.13391 0.400478 -37.2608 3.62034
43 15 C 10.8537 10.4275 7.87628 49.2242 221.706 269.928
44 15 C 9.4102 10.8291 7.68726 -41.8596 59.1781 20.3262
45 15 C 11.2243 10.3284 9.36489 147.407 -132.081 -306.112
46 16 C 6.83905 7.83134 3.09606 -708.304 -449.751 643.637
47 16 C 7.6345 8.38792 4.25285 -1350.53 -735.683 2007.49
48 16 C 5.61635 8.70629 2.77572 3443.46 1317.72 4199.98
49 17 C 3.80354 4.29108 3.18617 -1032.43 473.911 -216.466
50 17 C 3.2368 5.66772 3.43993 -56.2355 -199.65 137.947
51 17 C 4.74683 4.28122 1.9724 -1344.96 1037.42 -1871.84
52 18 C 1.33526 11.5479 4.86066 18.3014 -5.37574 -3.80067
53 18 C 1.2645 12.9853 5.31832 -15.1335 18.4985 7.37259
54 18 C 2.78335 11.1108 4.58648 -20.895 0.864606 -23.7208
55 19 C 11.9479 8.40689 5.38513 445.435 350.194 -282.359
56 19 C 12.2887 8.21429 3.92654 21.7142 -6.17309 -21.5969
57 19 C 10.6507 9.2125 5.56266 497.124 1401.14 -1684.99
58 20 C 12.2029 7.0678 9.24592 39.7637 -18.5323 53.9828
59 20 C 12.6363 5.72333 8.71178 4.87945 -11.8465 -19.1963
60 20 C 12.3459 7.14338 10.7746 -4.76804 11.6391 2.21269
61 21 C 6.97111 3.4253 4.68961 17.8495 60.4062 24.7864
62 21 C 6.63401 2.54878 5.8723 -634.931 940.182 -979.961
63 21 C 5.8972 3.33588 3.59331 2342.2 977.315 2472.91
64 22 C 1.04223 8.21766 7.01316 -16.2915 -7.4956 -11.3136
65 22 C 2.46575 7.88893 6.63075 -393.761 -81.5523 -143.083
66 22 C 0.03444 7.33457 6.25973 -4.56446 4.69719 6.81439
67 23 C 5.92803 1.14602 3.31253 0.962229 -2514.36 -401.16
68 23 C 4.68875 0.329624 3.5925 -21.1893 -23.4646 17.3149
69 23 C 6.20006 1.26455 1.80419 29.4227 -98.6548 -86.0857
70 24 C 10.2932 11.1782 11.61 -131.681 100.592 290.634
71 24 C 10.1449 12.5571 11.0124 -4.91079 53.2825 12.6834
72 24 C 9.02346 10.7464 12.3614 187.925 -42.9287 56.2862
