Data file for ethane with only bonds 

   72 atoms
   1 atom types

   0.000000000    15 xlo xhi
   0.000000000    15 ylo yhi
   0.000000000    15 zlo zhi

Masses

   1  14.5

Atoms

     1	  1 12.699206 2.383842 9.698456
     2	  1 11.724107 1.549071 10.494099
     3	  1 12.910158 1.816317 8.285460
     4	  1 9.297450 3.858874 11.458930
     5	  1 8.975572 4.182635 12.898472
     6	  1 9.717998 2.390118 11.288532
     7	  1 10.165878 6.802415 6.115209
     8	  1 10.148184 7.796971 7.251542
     9	  1 8.743900 6.434655 5.661478
    10	  1 3.715197 7.559508 1.435008
    11	  1 3.454821 8.299638 2.725403
    12	  1 5.181352 7.110766 1.324726
    13	  1 6.166998 10.248846 10.671731
    14	  1 6.492849 11.322231 11.682856
    15	  1 5.429986 10.824318 9.451573
    16	  1 5.257293 11.168134 0.660343
    17	  1 5.425457 9.674734 0.809298
    18	  1 3.783701 11.555088 0.455562
    19	  1 5.297048 3.556582 12.782980
    20	  1 3.791067 3.568720 12.895146
    21	  1 5.771110 4.157227 11.449701
    22	  1 4.916677 8.647560 6.960425
    23	  1 4.600298 8.086737 8.326474
    24	  1 4.589041 10.146965 6.873355
    25	  1 8.507250 7.843283 9.556730
    26	  1 7.494472 8.114637 8.469828
    27	  1 7.837067 7.697196 10.932467
    28	 1 8.695504 9.160001 2.487040
    29	 1 8.747451 10.320418 1.521927
    30	 1 9.188504 7.857992 1.835223
    31	 1 7.693131 1.162714 7.371208
    32	 1 6.434752 1.058349 8.199639
    33	 1 8.930035 0.700467 8.158316
    34	 1 7.736167 6.101005 13.003277
    35	 1 6.745225 6.004408 11.867755
    36	 1 8.472077 7.450660 13.000256
    37	 1 5.968838 5.495469 7.944178
    38	 1 6.502495 6.217306 9.158620
    39	 1 5.946162 6.407602 6.706988
    40	 1 3.847580 5.358158 8.519407
    41	 1 4.010841 5.777832 9.960909
    42	 1 2.366017 5.218508 8.133909
    43	 1 10.853695 10.427470 7.876283
    44	 1 9.410201 10.829094 7.687261
    45	 1 11.224326 10.328361 9.364890
    46	 1 6.839047 7.831339 3.096057
    47	 1 7.634502 8.387917 4.252854
    48	 1 5.616349 8.706288 2.775722
    49	 1 3.803537 4.291081 3.186170
    50	 1 3.236796 5.667715 3.439925
    51	 1 4.746830 4.281215 1.972397
    52	 1 1.335265 11.547881 4.860662
    53	 1 1.264501 12.985326 5.318321
    54	 1 2.783351 11.110834 4.586476
    55	 1 11.947902 8.406894 5.385125
    56	 1 12.288707 8.214287 3.926543
    57	 1 10.650741 9.212499 5.562655
    58	 1 12.202937 7.067804 9.245920
    59	 1 12.636284 5.723328 8.711784
    60	 1 12.345939 7.143382 10.774638
    61	 1 6.971111 3.425304 4.689608
    62	 1 6.634011 2.548775 5.872304
    63	 1 5.897202 3.335879 3.593312
    64	 1 1.042226 8.217662 7.013157
    65	 1 2.465745 7.888934 6.630747
    66	 1 0.034440 7.334568 6.259729
    67	 1 5.928032 1.146020 3.312526
    68	 1 4.688750 0.329624 3.592500
    69	 1 6.200061 1.264554 1.804186
    70	 1 10.293174 11.178173 11.610046
    71	 1 10.144929 12.557143 11.012408
    72	 1 9.023465 10.746431 12.361431

