LAMMPS (29 Oct 2020)
#### GENERAL CONTROLS ####

units       real				# Required for chimes pairstyle
newton 		on   				# Required for chimes pairstyle

atom_style	atomic				# Required for chimes pairstyle
atom_modify	sort 0 0.0			# Required for chimes pairstyle (allowing sorting may screw up 3b parent/neighbor relationships)
atom_modify	map array			# May be more efficient

neighbor	2.0 bin
neigh_modify	delay 0 every 1 check yes

#### Specify model parameters, read in data file

read_data	data.propane_box
Reading data file ...
  orthogonal box = (0.0000000 0.0000000 0.0000000) to (15.000000 15.000000 15.000000)
  1 by 1 by 1 MPI processor grid
  reading atoms ...
  72 atoms
  read_data CPU = 0.003 seconds

pair_style hybrid/overlay chimesFF chimesFF
pair_coeff * * chimesFF 1 /nfs/turbo/coe-rklinds/for_ben/training_sets/toy_model/hyper_analysis_normal/frank_poly_order/altering_2B3B/4_2B_lr/0_3B_lr/6_2B_sr/4_3B_sr/low/params.txt
pair_coeff * * chimesFF 2 /nfs/turbo/coe-rklinds/for_ben/training_sets/toy_model/hyper_analysis_normal/frank_poly_order/altering_2B3B/4_2B_lr/0_3B_lr/high/params.txt

#### Initiate dynamics and set i/o

timestep        0.05

velocity        all create 500.0 1111 loop all mom yes rot yes dist gaussian

fix             1 all nvt temp 500.0 500.0 20.0
fix_modify      1 energy yes      # Convert etotal to conserved quantity (add thermostat contributions)

#dump            1 all custom 1000 traj.lammpstrj id element xu yu zu fx fy fz
dump            1 all custom 1 traj.lammpstrj id element xu yu zu fx fy fz
dump_modify     1 element C

dump            2 all custom 100 traj.2000.lammpstrj id element xu yu zu fx fy fz
dump_modify     2 element C


thermo_style    custom step time ke pe etotal press
thermo_modify   line one format float %20.5f flush yes
#thermo          100
thermo          1

run             200000
Neighbor list info ...
  update every 1 steps, delay 0 steps, check yes
  max neighbors/atom: 2000, page size: 100000
  master list distance cutoff = 9
  ghost atom cutoff = 9
  binsize = 4.5, bins = 4 4 4
  2 neighbor lists, perpetual/occasional/extra = 2 0 0
  (1) pair chimesFF, perpetual
      attributes: full, newton on, ghost
      pair build: full/bin/ghost
      stencil: full/ghost/bin/3d
      bin: standard
  (2) pair chimesFF, perpetual, copy from (1)
      attributes: full, newton on, ghost
      pair build: copy
      stencil: none
      bin: none
Per MPI rank memory allocation (min/avg/max) = 5.855 | 5.855 | 5.855 Mbytes
Step Time KinEng PotEng TotEng Press 
       0              0.00000            105.81876          -2170.09377          -2064.27501         -90061.98774 
       1              0.05000            104.83905          -2169.11405          -2064.27500         -90025.59398 
       2              0.10000            105.58828          -2169.86318          -2064.27490         -90069.38463 
       3              0.15000            108.06806          -2172.34276          -2064.27471         -90193.45603 
       4              0.20000            112.28139          -2176.55581          -2064.27442         -90398.07782 
       5              0.25000            118.23272          -2182.50677          -2064.27405         -90683.69415 
       6              0.30000            125.92798          -2190.20156          -2064.27357         -91050.92574 
       7              0.35000            135.37456          -2199.64756          -2064.27300         -91500.57281 
       8              0.40000            146.58138          -2210.85370          -2064.27232         -92033.61891 
       9              0.45000            159.55897          -2223.83049          -2064.27152         -92651.23561 
      10              0.50000            174.31945          -2238.59006          -2064.27061         -93354.78818 
      11              0.55000            190.87670          -2255.14628          -2064.26957         -94145.84219 
      12              0.60000            209.24637          -2273.51477          -2064.26840         -95026.17128 
      13              0.65000            229.44598          -2293.71306          -2064.26708         -95997.86332 
      14              0.70000            251.49503          -2315.76063          -2064.26560         -97065.08281 
      15              0.75000            275.41515          -2339.67909          -2064.26394         -98228.23377 
      16              0.80000            301.23023          -2365.49233          -2064.26210         -99490.02432 
      17              0.85000            328.96657          -2393.22663          -2064.26006        -100853.42892 
      18              0.90000            358.65310          -2422.91089          -2064.25779        -102321.69477 
      19              0.95000            390.32152          -2454.57679          -2064.25527        -103898.36691 
      20              1.00000            424.00655          -2488.25904          -2064.25249        -105587.30959 
      21              1.05000            459.74622          -2523.99563          -2064.24941        -107392.72457 
      22              1.10000            497.58213          -2561.82812          -2064.24599        -109319.17428 
      23              1.15000            537.55978          -2601.80200          -2064.24222        -111371.60740 
      24              1.20000            579.72906          -2643.96704          -2064.23798        -113559.19257 
      25              1.25000            624.14472          -2688.37808          -2064.23336        -115889.10107 
      26              1.30000            670.86662          -2735.09487          -2064.22825        -118362.70201 
      27              1.35000            719.96019          -2784.18277          -2064.22258        -120986.79756 
      28              1.40000            771.49715          -2835.71346          -2064.21631        -123768.75501 
      29              1.45000            825.55664          -2889.76588          -2064.20923        -126724.20580 
      30              1.50000            882.22586          -2946.42737          -2064.20152        -129858.05624 
      31              1.55000            941.60032          -3005.79327          -2064.19295        -133176.38893 
      32              1.60000           1003.78506          -3067.96850          -2064.18344        -136689.27474 
      33              1.65000           1068.89588          -3133.06875          -2064.17287        -140407.67746 
      34              1.70000           1137.06067          -3201.22179          -2064.16111        -144343.47600 
      35              1.75000           1208.42092          -3272.56891          -2064.14800        -148510.72102 
      36              1.80000           1283.13336          -3347.26676          -2064.13341        -152923.40661 
      37              1.85000           1361.30059          -3425.47537          -2064.17479        -157390.75221 
      38              1.90000           1441.66829          -3506.14819          -2064.47991        -158343.09768 
      39              1.95000           1519.81146          -3585.11656          -2065.30510        -150776.62537 
      40              2.00000           1585.42168          -3652.52151          -2067.09983        -123312.88260 
      41              2.05000           1624.59305          -3692.29541          -2067.70236         -75584.40382 
      42              2.10000           1624.78874          -3693.69008          -2068.90134          -3142.58322 
      43              2.15000           1582.70117          -3650.38511          -2067.68394          81303.28829 
      44              2.20000           1512.41886          -3578.81444          -2066.39558         163660.02548 
      45              2.25000           1438.27842          -3503.23414          -2064.95572         242095.66932 
      46              2.30000           1384.96700          -3449.12693          -2064.15993         309932.87577 
      47              2.35000           1369.08750          -3432.94247          -2063.85497         365997.11357 
      48              2.40000           1395.45445          -3459.73867          -2064.28422         401972.14143 
      49              2.45000           1459.38631          -3524.53021          -2065.14389         410607.41483 
      50              2.50000           1548.63366          -3614.80019          -2066.16652         393282.57423 
      51              2.55000           1647.04724          -3714.26800          -2067.22077         356257.61069 
      52              2.60000           1739.26348          -3806.61845          -2067.35496         308312.53640 
      53              2.65000           1815.87653          -3883.79218          -2067.91564         255347.59975 
      54              2.70000           1873.98591          -3941.38825          -2067.40234         214641.95410 
      55              2.75000           1916.36606          -3983.49496          -2067.12890         190780.25548 
      56              2.80000           1946.04694          -4012.97120          -2066.92426         168337.76417 
      57              2.85000           1963.20030          -4030.08697          -2066.88668         146888.61092 
      58              2.90000           1967.09348          -4033.95635          -2066.86287         124215.47072 
      59              2.95000           1960.08458          -4026.52219          -2066.43761         109228.21718 
      60              3.00000           1948.70409          -4014.81244          -2066.10835         104931.77046 
      61              3.05000           1937.16943          -4003.36438          -2066.19495         108283.04502 
      62              3.10000           1925.08575          -3991.42641          -2066.34066         120958.71602 
      63              3.15000           1909.89883          -3976.42004          -2066.52121         136362.81197 
      64              3.20000           1888.51443          -3955.14613          -2066.63170         158082.84906 
      65              3.25000           1859.03901          -3925.93961          -2066.90059         176056.55382 
      66              3.30000           1822.28184          -3888.75064          -2066.46880         190040.47065 
      67              3.35000           1783.21633          -3849.18738          -2065.97105         192338.83113 
      68              3.40000           1751.80984          -3817.32605          -2065.51621         191825.23348 
      69              3.45000           1737.21866          -3802.23237          -2065.01371         180741.94120 
      70              3.50000           1743.85437          -3809.01523          -2065.16085         163713.84894 
      71              3.55000           1770.05482          -3835.77927          -2065.72445         141951.08525 
      72              3.60000           1806.94591          -3873.57282          -2066.62692         119646.94890 
      73              3.65000           1842.22154          -3909.49137          -2067.26983          97630.78113 
      74              3.70000           1864.18849          -3932.21668          -2068.02818          79345.52762 
      75              3.75000           1864.61002          -3932.69573          -2068.08571          64589.69508 
      76              3.80000           1841.90751          -3909.61121          -2067.70370          52969.32624 
      77              3.85000           1804.57504          -3870.96685          -2066.39181          49602.43820 
      78              3.90000           1766.68502          -3832.29309          -2065.60807          48259.94043 
      79              3.95000           1739.85977          -3804.89413          -2065.03436          43900.29219 
      80              4.00000           1731.31000          -3796.13743          -2064.82743          34863.38149 
      81              4.05000           1742.19366          -3807.36203          -2065.16837          17208.03284 
      82              4.10000           1767.66736          -3833.33759          -2065.67023          -9638.98906 
      83              4.15000           1799.82023          -3865.99927          -2066.17905         -43707.17926 
      84              4.20000           1831.09211          -3897.65059          -2066.55848         -78872.52093 
      85              4.25000           1855.64898          -3922.41680          -2066.76782        -114621.52434 
      86              4.30000           1870.43862          -3937.10578          -2066.66717        -143002.76891 
      87              4.35000           1875.85532          -3942.27766          -2066.42234        -161867.37717 
      88              4.40000           1873.79864          -3940.07835          -2066.27970        -171240.62647 
      89              4.45000           1866.19683          -3932.36287          -2066.16604        -171810.31885 
      90              4.50000           1854.73165          -3920.76989          -2066.03824        -164479.25350 
      91              4.55000           1840.90740          -3906.96129          -2066.05389        -150810.62901 
      92              4.60000           1825.82954          -3891.80044          -2065.97090        -134014.39610 
      93              4.65000           1810.20202          -3875.98112          -2065.77910        -114369.85322 
      94              4.70000           1796.06632          -3861.62028          -2065.55397         -98343.13116 
      95              4.75000           1787.02912          -3852.36438          -2065.33527         -87030.00383 
      96              4.80000           1786.49418          -3851.66938          -2065.17520         -81425.78781 
      97              4.85000           1796.87889          -3861.99894          -2065.12005         -81958.66518 
      98              4.90000           1818.93479          -3884.12572          -2065.19093         -88864.31641 
      99              4.95000           1851.45539          -3916.82547          -2065.37008        -101607.90356 
     100              5.00000           1891.56502          -3957.17333          -2065.60831        -119129.99399 
     101              5.05000           1935.17883          -4001.16611          -2065.98728        -139107.36192 
     102              5.10000           1977.41701          -4043.74122          -2066.32421        -155706.41234 
     103              5.15000           2013.23511          -4079.88741          -2066.65229        -168353.19767 
     104              5.20000           2037.90445          -4105.32538          -2067.42093        -168992.74621 
     105              5.25000           2047.43540          -4114.50535          -2067.06995        -155745.44292 
     106              5.30000           2043.36473          -4109.95744          -2066.59271        -141015.14044 
     107              5.35000           2033.17297          -4099.17752          -2066.00455        -125219.91864 
     108              5.40000           2025.79987          -4091.24406          -2065.44419        -110896.02323 
     109              5.45000           2029.75249          -4094.82606          -2065.07357        -101066.29839 
     110              5.50000           2050.64745          -4115.64266          -2064.99521         -98234.25437 
     111              5.55000           2089.52947          -4154.75367          -2065.22420        -102807.58553 
     112              5.60000           2142.77433          -4208.43626          -2065.66193        -114083.59485 
     113              5.65000           2203.36893          -4269.58261          -2066.21368        -129773.20102 
     114              5.70000           2262.97565          -4329.68180          -2066.70615        -147250.23977 
     115              5.75000           2313.94920          -4381.05202          -2067.10282        -165489.20900 
     116              5.80000           2351.59960          -4418.10382          -2066.50422        -181012.23370 
     117              5.85000           2377.39190          -4444.28582          -2066.89393        -179095.56018 
     118              5.90000           2394.33921          -4460.85870          -2066.51949        -167519.74805 
     119              5.95000           2405.63806          -4471.78262          -2066.14456        -154285.50307 
     120              6.00000           2416.65145          -4482.52660          -2065.87515        -140218.83456 
     121              6.05000           2431.86546          -4497.53967          -2065.67421        -128197.64127 
     122              6.10000           2454.52224          -4520.08481          -2065.56257        -119286.29912 
     123              6.15000           2486.24275          -4551.91368          -2065.67093        -113685.90649 
     124              6.20000           2525.42353          -4591.48812          -2066.06459        -107401.73523 
     125              6.25000           2567.57014          -4634.03160          -2066.46145        -101350.92592 
     126              6.30000           2607.13987          -4674.17037          -2067.03050         -95336.86143 
     127              6.35000           2637.51385          -4704.54454          -2067.03070         -84902.00075 
     128              6.40000           2655.95463          -4722.83608          -2066.88144         -80343.42162 
     129              6.45000           2667.82590          -4733.74964          -2065.92374         -72344.20643 
     130              6.50000           2681.99094          -4747.56812          -2065.57718         -61820.70514 
     131              6.55000           2704.52890          -4770.10780          -2065.57890         -50688.09689 
     132              6.60000           2736.71150          -4802.57266          -2065.86116         -39314.18509 
     133              6.65000           2773.46030          -4840.35670          -2066.89640         -21394.70236 
     134              6.70000           2806.27456          -4873.24454          -2066.96999          -2289.87103 
     135              6.75000           2824.42946          -4894.01030          -2069.58084          21991.13043 
     136              6.80000           2797.15950          -4873.40451          -2076.24502          77757.80493 
     137              6.85000           2695.75676          -4771.05850          -2075.30174         144473.20626 
     138              6.90000           2529.35784          -4603.07163          -2073.71379         211582.28613 
     139              6.95000           2342.94645          -4412.25690          -2069.31045         275530.75088 
     140              7.00000           2205.27423          -4270.42683          -2065.15260         314623.73019 
     141              7.05000           2177.48689          -4241.06858          -2063.58169         320776.94754 
     142              7.10000           2280.00147          -4345.75429          -2065.75282         287392.93421 
     143              7.15000           2479.18614          -4549.42248          -2070.23634         217526.52100 
     144              7.20000           2707.33195          -4781.51903          -2074.18708         122690.53504 
     145              7.25000           2901.90556          -4977.72109          -2075.81553          24515.33275 
     146              7.30000           3029.62458          -5106.14723          -2076.52264         -64999.49788 
     147              7.35000           3084.03102          -5155.50332          -2071.47230        -128281.52068 
     148              7.40000           3078.28498          -5150.72426          -2072.43928        -135719.69395 
     149              7.45000           3021.60906          -5094.28048          -2072.67142        -118376.48365 
     150              7.50000           2918.59864          -4989.83704          -2071.23840         -90987.28665 
     151              7.55000           2788.75154          -4858.44809          -2069.69654         -53671.01274 
     152              7.60000           2662.41939          -4729.44651          -2067.02712          -5578.63662 
     153              7.65000           2575.00382          -4640.29585          -2065.29203          28732.37956 
     154              7.70000           2551.41899          -4616.84977          -2065.43078          43944.83915 
     155              7.75000           2589.19454          -4656.38867          -2067.19413          42765.78277 
     156              7.80000           2663.61214          -4732.82744          -2069.21530          26529.32295 
     157              7.85000           2743.68941          -4814.35968          -2070.67027            786.02325 
     158              7.90000           2805.12199          -4876.54263          -2071.42064         -28137.20573 
     159              7.95000           2831.18704          -4902.80279          -2071.61575         -46895.43183 
     160              8.00000           2825.74259          -4896.19346          -2070.45086         -49667.28939 
     161              8.05000           2807.10111          -4876.62767          -2069.52656         -47306.26438 
     162              8.10000           2783.26325          -4853.08169          -2069.81843         -47958.54563 
     163              8.15000           2756.21577          -4825.32636          -2069.11059         -54600.30973 
     164              8.20000           2732.52243          -4801.32314          -2068.80071         -57096.80792 
     165              8.25000           2718.53925          -4787.72982          -2069.19057         -65195.03465 
     166              8.30000           2711.32877          -4781.01439          -2069.68562         -69407.60617 
     167              8.35000           2700.74889          -4772.26917          -2071.52028         -63884.49758 
     168              8.40000           2675.60665          -4747.31501          -2071.70836         -53760.39066 
     169              8.45000           2632.09470          -4703.61397          -2071.51927         -46226.15035 
     170              8.50000           2575.42598          -4646.32951          -2070.90353         -43717.96784 
     171              8.55000           2520.93610          -4590.35983          -2069.42373         -34940.63191 
     172              8.60000           2485.74728          -4554.66548          -2068.91820         -25340.67183 
     173              8.65000           2478.23225          -4547.25086          -2069.01861         -24768.22743 
     174              8.70000           2497.39388          -4566.90094          -2069.50707         -30349.16077 
     175              8.75000           2532.78358          -4603.34654          -2070.56296         -39329.35953 
     176              8.80000           2570.09553          -4641.30094          -2071.20541         -53190.23215 
     177              8.85000           2598.48010          -4669.88762          -2071.40752         -69791.90942 
     178              8.90000           2613.04209          -4684.53056          -2071.48847         -87824.95630 
     179              8.95000           2617.57754          -4688.36465          -2070.78712         -95411.50744 
     180              9.00000           2618.11987          -4688.89802          -2070.77815         -93693.35251 
     181              9.05000           2614.37088          -4685.94641          -2071.57552         -83831.83431 
     182              9.10000           2600.73660          -4672.76249          -2072.02588         -68960.30363 
     183              9.15000           2572.07804          -4644.22368          -2072.14564         -52853.68270 
     184              9.20000           2531.33611          -4602.86041          -2071.52430         -30237.67550 
     185              9.25000           2485.51462          -4556.61360          -2071.09898           1219.22569 
     186              9.30000           2444.82914          -4515.17463          -2070.34549          27192.63487 
     187              9.35000           2422.55237          -4492.32106          -2069.76869          46352.79168 
     188              9.40000           2427.38083          -4497.08974          -2069.70891          53420.83113 
     189              9.45000           2459.91524          -4530.10366          -2070.18842          49769.57514 
     190              9.50000           2514.42844          -4585.26888          -2070.84044          40440.37597 
     191              9.55000           2581.06366          -4652.71578          -2071.65212          27405.59650 
     192              9.60000           2646.82469          -4719.43166          -2072.60697          13584.55665 
     193              9.65000           2693.56946          -4766.79463          -2073.22516          21712.42526 
     194              9.70000           2708.78680          -4781.86107          -2073.07427          34100.66467 
     195              9.75000           2692.50790          -4765.22842          -2072.72052          56467.78736 
     196              9.80000           2650.74341          -4722.16427          -2071.42086          82737.04368 
     197              9.85000           2597.79304          -4668.25976          -2070.46672         114282.53382 
     198              9.90000           2549.48578          -4618.89339          -2069.40760         151827.57803 
     199              9.95000           2517.92817          -4587.03404          -2069.10587         186474.71836 
     200             10.00000           2510.74366          -4579.83571          -2069.09205         207906.81122 
     201             10.05000           2528.15473          -4597.74500          -2069.59027         214077.02526 
     202             10.10000           2563.30214          -4633.77977          -2070.47763         209822.85525 
     203             10.15000           2605.92355          -4677.01372          -2071.09018         195532.53434 
     204             10.20000           2645.98122          -4717.96301          -2071.98179         170481.18608 
     205             10.25000           2672.68271          -4744.86026          -2072.17755         143464.31821 
     206             10.30000           2685.63189          -4755.97573          -2070.34384         116466.75849 
     207             10.35000           2694.58922          -4764.78253          -2070.19331          91517.26317 
     208             10.40000           2704.28552          -4774.46251          -2070.17698          61331.95764 
     209             10.45000           2714.74986          -4785.04285          -2070.29299          25387.19844 
     210             10.50000           2726.58292          -4796.86499          -2070.28207          -5931.50688 
     211             10.55000           2739.21880          -4809.59619          -2070.37739         -29948.11193 
     212             10.60000           2750.03620          -4820.47521          -2070.43901         -51913.46697 
     213             10.65000           2757.38864          -4827.85204          -2070.46340         -76119.62945 
     214             10.70000           2760.25168          -4830.48835          -2070.23667        -102974.01240 
     215             10.75000           2760.03689          -4830.16276          -2070.12586        -130220.20753 
     216             10.80000           2759.74635          -4829.13936          -2069.39302        -160321.96828 
     217             10.85000           2764.72595          -4834.00920          -2069.28325        -181516.31496 
     218             10.90000           2778.82348          -4848.12399          -2069.30051        -200169.94174 
     219             10.95000           2799.72991          -4869.48748          -2069.75757        -214929.16669 
     220             11.00000           2821.35982          -4891.63567          -2070.27585        -224163.06037 
     221             11.05000           2836.15672          -4906.94419          -2070.78746        -227339.42200 
     222             11.10000           2837.69065          -4908.93404          -2071.24339        -224373.06585 
     223             11.15000           2823.10560          -4894.03102          -2070.92541        -204908.64163 
     224             11.20000           2796.53033          -4866.80331          -2070.27298        -178852.84044 
     225             11.25000           2767.04849          -4837.02530          -2069.97682        -153005.03752 
     226             11.30000           2738.77844          -4809.43850          -2070.66005        -119304.23371 
     227             11.35000           2702.96973          -4776.84133          -2073.87160         -70627.28200 
     228             11.40000           2644.38861          -4717.96098          -2073.57237          -7070.87538 
     229             11.45000           2561.04831          -4634.03450          -2072.98619          49053.63269 
     230             11.50000           2466.37618          -4537.92197          -2071.54579         103333.29533 
     231             11.55000           2382.96266          -4452.79793          -2069.83527         142481.44237 
     232             11.60000           2334.72538          -4403.79956          -2069.07418         173682.84849 
     233             11.65000           2337.49753          -4406.30868          -2068.81116         181080.17665 
     234             11.70000           2393.91387          -4463.74955          -2069.83568         160819.32527 
     235             11.75000           2489.65515          -4560.49653          -2070.84138         125707.26338 
     236             11.80000           2602.48645          -4674.68429          -2072.19783          76473.02829 
     237             11.85000           2710.15129          -4783.40893          -2073.25764          14812.15328 
     238             11.90000           2794.79741          -4867.76053          -2072.96312         -54468.30431 
     239             11.95000           2855.72720          -4928.44762          -2072.72042        -107385.51904 
     240             12.00000           2900.01804          -4972.27841          -2072.26038        -155151.08987 
     241             12.05000           2927.62793          -5000.87574          -2073.24782        -184008.60601 
     242             12.10000           2933.12011          -5007.37596          -2074.25585        -187645.82173 
     243             12.15000           2906.03646          -4981.55352          -2075.51706        -173403.35955 
     244             12.20000           2836.57453          -4911.46218          -2074.88765        -116382.86138 
     245             12.25000           2724.18395          -4798.62140          -2074.43745         -44439.69934 
     246             12.30000           2580.05332          -4653.52680          -2073.47347          36244.62326 
     247             12.35000           2421.07865          -4493.55132          -2072.47267         117939.48840 
     248             12.40000           2264.91213          -4336.96093          -2072.04881         196777.67946 
     249             12.45000           2127.61808          -4198.95399          -2071.33591         267805.03411 
     250             12.50000           2024.26943          -4094.83119          -2070.56177         317805.99343 
     251             12.55000           1966.70451          -4036.98244          -2070.27792         339959.16015 
     252             12.60000           1959.92199          -4030.34097          -2070.41898         332791.13823 
     253             12.65000           2001.47461          -4072.33921          -2070.86460         298456.09914 
     254             12.70000           2082.93126          -4154.68779          -2071.75654         242674.33306 
     255             12.75000           2190.03794          -4262.98800          -2072.95006         166037.86305 
     256             12.80000           2302.51844          -4376.70050          -2074.18206          81113.38605 
     257             12.85000           2397.48545          -4473.30295          -2075.81750           1362.33051 
     258             12.90000           2453.40907          -4529.44866          -2076.03959         -54750.18354 
     259             12.95000           2461.41549          -4537.17493          -2075.75944         -90143.22284 
     260             13.00000           2430.94527          -4505.39106          -2074.44579        -107087.18472 
     261             13.05000           2380.52785          -4453.69379          -2073.16594        -112150.44261 
     262             13.10000           2330.07470          -4402.01564          -2071.94093        -113922.07135 
     263             13.15000           2298.33873          -4369.09800          -2070.75927        -115312.44916 
     264             13.20000           2296.66783          -4367.52047          -2070.85264        -122284.09907 
     265             13.25000           2323.09764          -4394.85539          -2071.75774        -133435.25307 
     266             13.30000           2364.83734          -4437.76625          -2072.92892        -143845.25660 
     267             13.35000           2404.44461          -4478.45839          -2074.01379        -151807.02193 
     268             13.40000           2425.21942          -4500.27521          -2075.05579        -156787.85546 
     269             13.45000           2416.43557          -4490.35362          -2073.91805        -140868.40331 
     270             13.50000           2381.04407          -4454.36309          -2073.31901        -109330.69302 
     271             13.55000           2332.99638          -4405.04164          -2072.04527         -76976.73369 
     272             13.60000           2287.91214          -4359.16479          -2071.25265         -54989.37119 
     273             13.65000           2259.88450          -4330.36045          -2070.47595         -45334.21423 
     274             13.70000           2258.93826          -4329.21844          -2070.28017         -50265.37966 
     275             13.75000           2287.43003          -4358.33003          -2070.90000         -67451.49917 
     276             13.80000           2336.55550          -4408.79787          -2072.24237         -87814.73092 
     277             13.85000           2388.42625          -4462.10481          -2073.67856        -105916.20970 
     278             13.90000           2418.06699          -4493.37143          -2075.30444        -105727.75725 
     279             13.95000           2406.46316          -4482.19837          -2075.73522        -101405.67602 
     280             14.00000           2352.41918          -4427.71526          -2075.29608         -92591.17796 
     281             14.05000           2270.38104          -4343.36723          -2072.98618         -74208.57066 
     282             14.10000           2186.54135          -4258.06254          -2071.52119         -44944.90750 
     283             14.15000           2123.09549          -4194.65408          -2071.55860         -14314.32888 
     284             14.20000           2087.99907          -4159.60132          -2071.60224           9967.60175 
     285             14.25000           2079.13045          -4151.33074          -2072.20030          20330.21880 
     286             14.30000           2087.52991          -4160.70982          -2073.17991          19987.12231 
     287             14.35000           2101.34533          -4175.09942          -2073.75409          12509.58049 
     288             14.40000           2111.39162          -4185.38513          -2073.99351          -2980.06089 
     289             14.45000           2113.40288          -4187.51367          -2074.11079         -31312.07440 
     290             14.50000           2110.94111          -4183.95135          -2073.01024         -54891.23611 
     291             14.55000           2110.75365          -4183.51983          -2072.76618         -79741.01935 
     292             14.60000           2115.86595          -4188.33513          -2072.46918        -104017.72749 
     293             14.65000           2126.03954          -4198.72567          -2072.68613        -126573.94526 
     294             14.70000           2137.91920          -4210.93734          -2073.01815        -154678.32742 
     295             14.75000           2145.90534          -4219.40501          -2073.49968        -191841.71801 
     296             14.80000           2150.62191          -4223.96110          -2073.33920        -217733.23904 
     297             14.85000           2155.81871          -4229.16517          -2073.34646        -244677.37708 
     298             14.90000           2161.49870          -4234.61199          -2073.11329        -268928.15431 
     299             14.95000           2167.92092          -4240.91722          -2072.99630        -288894.77868 
     300             15.00000           2174.68290          -4247.80934          -2073.12644        -305103.83932 
     301             15.05000           2180.75471          -4253.90216          -2073.14745        -316073.04741 
     302             15.10000           2184.71340          -4257.97450          -2073.26110        -319717.45759 
     303             15.15000           2182.84410          -4256.57566          -2073.73156        -307328.48636 
     304             15.20000           2173.13919          -4246.56959          -2073.43040        -290492.63141 
     305             15.25000           2157.16755          -4230.77310          -2073.60555        -269282.47387 
     306             15.30000           2135.14610          -4208.93767          -2073.79157        -241495.66298 
     307             15.35000           2104.06963          -4179.09785          -2075.02822        -202668.39008 
     308             15.40000           2062.24441          -4136.82376          -2074.57935        -160090.11936 
     309             15.45000           2015.56315          -4089.53649          -2073.97334        -123214.59391 
     310             15.50000           1974.00398          -4047.43304          -2073.42906         -90226.57150 
     311             15.55000           1948.29702          -4021.10686          -2072.80984         -70157.77668 
     312             15.60000           1947.97438          -4020.44817          -2072.47379         -64790.22382 
     313             15.65000           1977.11674          -4049.84981          -2072.73306         -77775.39947 
     314             15.70000           2031.72945          -4105.17981          -2073.45036        -109771.24464 
     315             15.75000           2102.82491          -4176.41765          -2073.59274        -143293.35251 
     316             15.80000           2180.52272          -4254.83994          -2074.31723        -180124.32542 
     317             15.85000           2254.20100          -4329.17755          -2074.97655        -223121.77378 
     318             15.90000           2314.14899          -4388.98496          -2074.83597        -266556.04898 
     319             15.95000           2359.18253          -4433.84310          -2074.66056        -291487.72311 
     320             16.00000           2391.58791          -4466.74490          -2075.15699        -296734.20091 
     321             16.05000           2408.81697          -4484.36565          -2075.54869        -279784.34502 
     322             16.10000           2410.39163          -4485.69395          -2075.30233        -255022.10639 
     323             16.15000           2399.84151          -4475.30339          -2075.46188        -227042.68124 
     324             16.20000           2383.01087          -4457.75827          -2074.74740        -198307.98559 
     325             16.25000           2369.21830          -4443.39757          -2074.17927        -174755.44333 
     326             16.30000           2370.12865          -4443.37093          -2073.24227        -156555.87225 
     327             16.35000           2393.40532          -4467.71192          -2074.30660        -140953.86496 
     328             16.40000           2429.54162          -4507.88483          -2078.34321        -119746.20037 
     329             16.45000           2447.19325          -4525.07565          -2077.88240         -81935.33244 
     330             16.50000           2429.10278          -4506.97716          -2077.87438         -51405.15480 
     331             16.55000           2384.14121          -4461.02462          -2076.88341         -20316.90392 
     332             16.60000           2328.73599          -4404.99378          -2076.25779          19284.69088 
     333             16.65000           2290.19800          -4364.56895          -2074.37095          55328.77149 
     334             16.70000           2296.80566          -4370.67713          -2073.87146          79308.36784 
     335             16.75000           2355.61223          -4430.85172          -2075.23949          84220.30550 
     336             16.80000           2450.60715          -4527.28624          -2076.67909          84653.99360 
     337             16.85000           2554.04162          -4633.26068          -2079.21906          80122.58012 
     338             16.90000           2636.91725          -4717.58330          -2080.66606          74549.76035 
     339             16.95000           2671.05133          -4754.65866          -2083.60733          71872.69331 
     340             17.00000           2659.34506          -4742.02963          -2082.68458         102127.32712 
     341             17.05000           2623.34199          -4706.95492          -2083.61293         147014.03210 
     342             17.10000           2564.01340          -4647.38190          -2083.36850         201328.92826 
     343             17.15000           2480.48443          -4565.06006          -2084.57563         244390.94848 
     344             17.20000           2385.67642          -4466.81079          -2081.13437         286560.05984 
     345             17.25000           2302.19740          -4382.43328          -2080.23588         326597.57313 
     346             17.30000           2245.79409          -4325.78369          -2079.98960         351801.92874 
     347             17.35000           2220.35262          -4301.37375          -2081.02113         359436.88182 
     348             17.40000           2224.59115          -4305.21632          -2080.62516         347271.30479 
     349             17.45000           2260.02273          -4340.01002          -2079.98729         305297.34214 
     350             17.50000           2328.70181          -4409.06743          -2080.36563         242520.04203 
     351             17.55000           2426.88623          -4507.76630          -2080.88007         177527.00772 
     352             17.60000           2540.02114          -4622.44945          -2082.42831         104134.30911 
     353             17.65000           2639.05289          -4724.26143          -2085.20854          31533.34644 
     354             17.70000           2697.36339          -4780.95641          -2083.59302         -38216.24568 
     355             17.75000           2710.28436          -4793.95041          -2083.66605         -92289.95380 
     356             17.80000           2688.27687          -4769.71150          -2081.43464        -120153.99268 
     357             17.85000           2650.17681          -4730.32141          -2080.14460        -129509.90893 
     358             17.90000           2614.42826          -4693.91592          -2079.48766        -135303.35815 
     359             17.95000           2593.17921          -4671.38178          -2078.20257        -141202.48972 
     360             18.00000           2593.56112          -4671.80012          -2078.23900        -144277.86094 
     361             18.05000           2612.95289          -4692.30728          -2079.35438        -155405.04445 
     362             18.10000           2637.81127          -4718.41575          -2080.60448        -169385.43311 
     363             18.15000           2643.50361          -4726.69387          -2083.19025        -173125.85862 
     364             18.20000           2612.10274          -4694.35223          -2082.24949        -177793.20966 
     365             18.25000           2549.46788          -4631.35562          -2081.88774        -160864.86047 
     366             18.30000           2467.55170          -4548.81322          -2081.26151        -131992.18658 
     367             18.35000           2382.99853          -4462.81953          -2079.82100        -107272.31120 
     368             18.40000           2319.48318          -4398.09110          -2078.60792         -92785.30427 
     369             18.45000           2296.90705          -4374.66001          -2077.75296         -90126.50152 
     370             18.50000           2326.66258          -4404.46733          -2077.80475        -101284.27180 
     371             18.55000           2406.80354          -4485.61711          -2078.81357        -127118.27556 
     372             18.60000           2520.03713          -4601.09227          -2081.05514        -161783.26331 
     373             18.65000           2634.82517          -4718.85417          -2084.02899        -186817.16690 
     374             18.70000           2714.37318          -4799.43789          -2085.06471        -186160.96549 
     375             18.75000           2735.16947          -4820.86305          -2085.69358        -140114.64296 
     376             18.80000           2695.19591          -4780.20833          -2085.01242         -74483.46849 
     377             18.85000           2607.85290          -4690.57420          -2082.72130           5148.44616 
     378             18.90000           2493.73624          -4576.76804          -2083.03180         106007.77735 
     379             18.95000           2374.15582          -4455.60685          -2081.45102         211985.26085 
     380             19.00000           2271.34095          -4351.85389          -2080.51294         297094.42647 
     381             19.05000           2202.81350          -4282.80856          -2079.99506         352955.90388 
     382             19.10000           2177.61444          -4257.50595          -2079.89151         374726.59680 
     383             19.15000           2197.99365          -4278.21033          -2080.21667         362427.34670 
     384             19.20000           2258.66708          -4339.70425          -2081.03717         320537.47384 
     385             19.25000           2341.37399          -4424.78425          -2083.41026         263841.00552 
     386             19.30000           2420.51950          -4504.37150          -2083.85200         198939.10276 
     387             19.35000           2482.39849          -4567.42164          -2085.02315         145194.35658 
     388             19.40000           2513.77783          -4599.30976          -2085.53193         106394.79482 
     389             19.45000           2500.46981          -4586.31345          -2085.84364          65111.47039 
     390             19.50000           2442.37506          -4525.44987          -2083.07481          35959.80837 
     391             19.55000           2359.09603          -4440.75555          -2081.65952          22409.12909 
     392             19.60000           2279.15381          -4359.35507          -2080.20125          19762.58416 
     393             19.65000           2221.45554          -4301.47905          -2080.02351          16437.02720 
     394             19.70000           2191.31212          -4271.93372          -2080.62160           8386.81164 
     395             19.75000           2177.61534          -4260.75939          -2083.14404           1145.50146 
     396             19.80000           2162.54227          -4246.07981          -2083.53754         -13966.30460 
     397             19.85000           2138.89965          -4222.75998          -2083.86033         -18307.80228 
     398             19.90000           2108.17658          -4191.43182          -2083.25524         -25323.52350 
     399             19.95000           2075.67967          -4158.45277          -2082.77310         -41698.07006 
     400             20.00000           2051.10717          -4132.32001          -2081.21284         -68089.49974 
     401             20.05000           2044.56362          -4125.61449          -2081.05086         -97205.72175 
     402             20.10000           2060.25772          -4141.72961          -2081.47189        -123568.56889 
     403             20.15000           2092.96572          -4174.99108          -2082.02535        -153891.87304 
     404             20.20000           2131.07845          -4213.87579          -2082.79734        -186290.03529 
     405             20.25000           2161.50129          -4245.20005          -2083.69877        -222146.12642 
     406             20.30000           2172.76212          -4256.05677          -2083.29465        -252704.02267 
     407             20.35000           2165.21743          -4247.99414          -2082.77671        -262717.06976 
     408             20.40000           2147.27617          -4229.51803          -2082.24186        -264601.01204 
     409             20.45000           2125.36348          -4207.47080          -2082.10732        -255238.28749 
     410             20.50000           2102.98355          -4184.85430          -2081.87075        -238874.42542 
     411             20.55000           2081.42001          -4163.43517          -2082.01516        -220457.49065 
     412             20.60000           2062.27050          -4144.22526          -2081.95476        -202239.82374 
     413             20.65000           2045.84606          -4128.17041          -2082.32435        -176720.36955 
     414             20.70000           2030.79655          -4113.39356          -2082.59700        -148924.95761 
     415             20.75000           2011.38729          -4093.78576          -2082.39846        -112951.30406 
     416             20.80000           1983.34297          -4065.98278          -2082.63981         -83960.94587 
     417             20.85000           1944.68159          -4027.64506          -2082.96347         -52460.23216 
     418             20.90000           1893.53148          -3976.55791          -2083.02643         -20094.81800 
     419             20.95000           1830.49494          -3913.79718          -2083.30224          20350.25625 
     420             21.00000           1760.89898          -3843.33281          -2082.43383          47552.59971 
     421             21.05000           1698.96074          -3780.25694          -2081.29620          61372.63167 
     422             21.10000           1660.63417          -3741.23760          -2080.60343          58343.38036 
     423             21.15000           1656.88310          -3737.26228          -2080.37918          35219.31304 
     424             21.20000           1689.84657          -3770.78514          -2080.93857          -6328.13900 
     425             21.25000           1750.50402          -3832.74846          -2082.24444         -61911.94650 
     426             21.30000           1821.31705          -3904.47698          -2083.15992        -132776.24267 
     427             21.35000           1887.60924          -3971.47193          -2083.86270        -191872.45928 
     428             21.40000           1939.85456          -4024.20940          -2084.35484        -249363.34856 
     429             21.45000           1972.16618          -4056.21270          -2084.04652        -302811.82250 
     430             21.50000           1985.41650          -4068.74145          -2083.32495        -352389.41469 
     431             21.55000           1987.37107          -4068.89675          -2081.52568        -389656.43851 
     432             21.60000           1989.82780          -4070.97662          -2081.14882        -412994.26130 
     433             21.65000           1999.33760          -4080.51202          -2081.17442        -426682.96199 
     434             21.70000           2014.75764          -4096.31191          -2081.55428        -434936.42262 
     435             21.75000           2031.11500          -4113.07098          -2081.95598        -437423.86614 
     436             21.80000           2042.14526          -4124.42121          -2082.27595        -432365.15641 
     437             21.85000           2041.29180          -4124.04715          -2082.75534        -415969.61499 
     438             21.90000           2027.61110          -4110.05498          -2082.44388        -386801.91176 
     439             21.95000           2006.66663          -4088.75967          -2082.09304        -353798.64519 
     440             22.00000           1984.22574          -4066.16943          -2081.94369        -314070.50364 
     441             22.05000           1965.53196          -4047.45224          -2081.92028        -271143.95993 
     442             22.10000           1955.63045          -4037.19722          -2081.56676        -231804.80301 
     443             22.15000           1959.17912          -4040.71789          -2081.53877        -198376.59319 
     444             22.20000           1977.53146          -4059.45026          -2081.91880        -165383.34766 
     445             22.25000           2009.07935          -4091.08845          -2082.00910        -140985.18672 
     446             22.30000           2051.79116          -4134.08705          -2082.29589        -127430.44499 
     447             22.35000           2101.48309          -4184.44491          -2082.96181        -121208.51798 
     448             22.40000           2153.65122          -4236.28771          -2082.63650        -121932.97530 
     449             22.45000           2207.43751          -4290.57520          -2083.13769        -121441.61503 
     450             22.50000           2261.06195          -4344.82092          -2083.75897        -119035.15062 
     451             22.55000           2311.64884          -4395.21568          -2083.56684        -122683.79477 
     452             22.60000           2361.07678          -4444.35897          -2083.28218        -133329.97929 
     453             22.65000           2412.28687          -4495.85567          -2083.56880        -146321.53228 
     454             22.70000           2461.06088          -4545.82595          -2084.76507        -148778.56433 
     455             22.75000           2485.56396          -4573.58972          -2088.02576         -95428.09033 
     456             22.80000           2466.01392          -4553.95498          -2087.94107         -38717.60516 
     457             22.85000           2399.98862          -4487.50826          -2087.51964          32704.17939 
     458             22.90000           2297.12368          -4383.52899          -2086.40531         101996.96421 
     459             22.95000           2178.53974          -4263.69122          -2085.15149         174598.65323 
     460             23.00000           2072.67538          -4155.98997          -2083.31459         229611.35577 
     461             23.05000           2008.44634          -4090.21019          -2081.76385         257055.86290 
     462             23.10000           2003.53486          -4085.59457          -2082.05972         270431.80826 
     463             23.15000           2052.99359          -4138.02360          -2085.03001         270197.40273 
     464             23.20000           2131.66956          -4217.88335          -2086.21378         254702.08816 
     465             23.25000           2215.44484          -4302.81411          -2087.36928         213712.83590 
     466             23.30000           2285.95966          -4374.49496          -2088.53530         153496.05690 
     467             23.35000           2338.01402          -4424.74332          -2086.72930          94560.65248 
     468             23.40000           2376.44801          -4463.26573          -2086.81772          38087.58892 
     469             23.45000           2397.55385          -4485.95413          -2088.40028           -355.40978 
     470             23.50000           2389.38621          -4478.07157          -2088.68536         -29534.51037 
     471             23.55000           2352.82149          -4441.56582          -2088.74433         -23073.15850 
     472             23.60000           2294.60994          -4383.29848          -2088.68853          -4628.63796 
     473             23.65000           2215.85576          -4304.18947          -2088.33371          21723.63947 
     474             23.70000           2126.16890          -4213.54856          -2087.37966          40559.16515 
     475             23.75000           2043.27309          -4128.41761          -2085.14451          46962.73518 
     476             23.80000           1990.78740          -4074.89193          -2084.10453          45217.98041 
     477             23.85000           1986.50868          -4070.92233          -2084.41364          36307.86587 
     478             23.90000           2027.15028          -4112.92639          -2085.77610          15504.40858 
     479             23.95000           2092.21751          -4180.00962          -2087.79211         -18925.57234 
     480             24.00000           2150.80895          -4241.35162          -2090.54267         -54965.40622 
     481             24.05000           2173.89069          -4266.33425          -2092.44355         -70099.20690 
     482             24.10000           2147.95341          -4239.69081          -2091.73740         -48234.94974 
     483             24.15000           2074.51655          -4165.89463          -2091.37808          -6973.50819 
     484             24.20000           1966.64294          -4055.99650          -2089.35355          44429.27260 
     485             24.25000           1849.79426          -3937.46747          -2087.67320          95921.69660 
     486             24.30000           1753.00444          -3839.16019          -2086.15575         138358.46076 
     487             24.35000           1697.99410          -3783.78949          -2085.79539         162661.61329 
     488             24.40000           1691.58813          -3777.42461          -2085.83648         171829.85286 
     489             24.45000           1728.37797          -3815.16570          -2086.78773         158548.17610 
     490             24.50000           1794.36407          -3882.65342          -2088.28934         124403.99359 
     491             24.55000           1866.90178          -3957.43912          -2090.53734          75901.34372 
     492             24.60000           1921.05051          -4012.02798          -2090.97747          36241.56503 
     493             24.65000           1947.55707          -4038.08939          -2090.53231            512.08477 
     494             24.70000           1953.58889          -4043.59271          -2090.00382         -39459.88594 
     495             24.75000           1953.19479          -4041.85878          -2088.66399         -67585.34083 
     496             24.80000           1961.95337          -4050.19801          -2088.24465         -88258.47876 
     497             24.85000           1985.42374          -4073.72261          -2088.29886        -102367.46530 
     498             24.90000           2017.08543          -4106.95535          -2089.86993        -101692.22460 
     499             24.95000           2041.81463          -4132.19173          -2090.37711         -91077.36211 
     500             25.00000           2047.03905          -4138.79416          -2091.75510         -66577.71250 
     501             25.05000           2021.61243          -4113.47861          -2091.86618         -29054.72837 
     502             25.10000           1961.26612          -4052.29819          -2091.03206           5958.45988 
     503             25.15000           1876.52349          -3967.46796          -2090.94446          52239.52524 
     504             25.20000           1784.19409          -3873.67830          -2089.48421         111792.24790 
     505             25.25000           1704.07605          -3792.35410          -2088.27805         152815.20243 
     506             25.30000           1653.38298          -3741.22145          -2087.83847         175231.54804 
     507             25.35000           1640.76244          -3728.40588          -2087.64344         175800.15137 
     508             25.40000           1668.95412          -3756.87858          -2087.92446         146859.18717 
     509             25.45000           1733.61016          -3822.38867          -2088.77851          80516.09593 
     510             25.50000           1823.20427          -3913.07353          -2089.86926          -6031.18892 
     511             25.55000           1921.22645          -4012.29218          -2091.06574        -101441.85096 
     512             25.60000           2013.48559          -4105.21619          -2091.73061        -182061.19779 
     513             25.65000           2086.81056          -4179.49354          -2092.68299        -243640.83527 
     514             25.70000           2123.18118          -4217.03292          -2093.85174        -278177.76204 
     515             25.75000           2112.06078          -4204.43309          -2092.37231        -282584.84178 
     516             25.80000           2059.70038          -4151.65339          -2091.95301        -261425.19255 
     517             25.85000           1974.55352          -4066.04399          -2091.49047        -205929.77102 
     518             25.90000           1867.52587          -3957.49669          -2089.97082        -131508.83629 
     519             25.95000           1759.44197          -3848.39610          -2088.95413         -66931.55310 
     520             26.00000           1667.94676          -3756.22960          -2088.28284          -7493.35898 
     521             26.05000           1604.09905          -3692.13504          -2088.03599          35907.63103 
     522             26.10000           1571.92439          -3660.36560          -2088.44122          65762.33064 
     523             26.15000           1566.72838          -3655.99414          -2089.26576          80123.68231 
     524             26.20000           1578.17809          -3667.97997          -2089.80188          77515.92479 
     525             26.25000           1596.38629          -3686.12849          -2089.74220          67795.94132 
     526             26.30000           1615.67400          -3705.91277          -2090.23878          56139.34607 
     527             26.35000           1630.64951          -3721.33306          -2090.68355          50614.38727 
     528             26.40000           1636.18695          -3727.26741          -2091.08046          35723.77050 
     529             26.45000           1628.10747          -3719.10549          -2090.99802          21374.88578 
     530             26.50000           1606.04123          -3697.13151          -2091.09028           4549.00559 
     531             26.55000           1578.39531          -3669.19722          -2090.80191           2195.97503 
     532             26.60000           1553.32562          -3643.94361          -2090.61799          -9261.47220 
     533             26.65000           1533.33431          -3623.97686          -2090.64255         -32765.98512 
     534             26.70000           1517.46545          -3608.25841          -2090.79296         -62300.18426 
     535             26.75000           1506.95712          -3597.09432          -2090.13720         -89575.15568 
     536             26.80000           1505.01720          -3595.30981          -2090.29261        -118823.84887 
     537             26.85000           1511.29581          -3601.61560          -2090.31978        -152752.20957 
     538             26.90000           1523.82717          -3614.36996          -2090.54279        -194349.99077 
     539             26.95000           1538.24723          -3629.50964          -2091.26240        -237349.65531 
     540             27.00000           1550.05143          -3641.51221          -2091.46078        -277388.33707 
     541             27.05000           1559.52778          -3650.85370          -2091.32592        -311897.60857 
     542             27.10000           1568.80949          -3659.87099          -2091.06149        -344378.61545 
     543             27.15000           1578.64157          -3669.70705          -2091.06547        -374237.84429 
     544             27.20000           1589.04803          -3680.14618          -2091.09815        -401086.36803 
     545             27.25000           1599.91098          -3690.75872          -2090.84774        -423874.79575 
     546             27.30000           1610.95421          -3701.64965          -2090.69544        -434366.57303 
     547             27.35000           1623.35882          -3713.71886          -2090.36004        -440075.30990 
     548             27.40000           1640.14284          -3730.50146          -2090.35862        -442143.21188 
     549             27.45000           1663.30751          -3753.54199          -2090.23449        -443490.75870 
     550             27.50000           1693.51985          -3783.83356          -2090.31371        -451638.10407 
     551             27.55000           1731.92479          -3821.88218          -2089.95739        -455836.80182 
     552             27.60000           1778.76758          -3869.01793          -2090.25035        -455089.03193 
     553             27.65000           1826.60878          -3917.62237          -2091.01359        -438753.19110 
     554             27.70000           1866.45074          -3957.63693          -2091.18619        -422390.49172 
     555             27.75000           1895.35057          -3986.78121          -2091.43064        -404112.86205 
     556             27.80000           1912.90639          -4004.18623          -2091.27983        -372834.67584 
     557             27.85000           1917.14467          -4008.84700          -2091.70233        -312042.51028 
     558             27.90000           1907.11188          -3998.53671          -2091.42483        -247323.31930 
     559             27.95000           1883.53885          -3975.37457          -2091.83572        -171333.47275 
     560             28.00000           1852.00427          -3943.13210          -2091.12783         -94363.88037 
     561             28.05000           1825.11753          -3915.28524          -2090.16771         -22933.67926 
     562             28.10000           1815.93912          -3905.53645          -2089.59734          29845.91724 
     563             28.15000           1833.85636          -3923.59027          -2089.73391          68709.14414 
     564             28.20000           1878.50673          -3969.28878          -2090.78204          93540.07560 
     565             28.25000           1937.04652          -4029.94843          -2092.90191         111685.56680 
     566             28.30000           1986.71421          -4080.40064          -2093.68643         134049.87695 
     567             28.35000           2009.33500          -4103.91524          -2094.58023         164953.93633 
     568             28.40000           1994.21244          -4090.27978          -2096.06734         193447.97576 
     569             28.45000           1935.07435          -4030.26361          -2095.18925         243177.59044 
     570             28.50000           1837.20598          -3930.07536          -2092.86937         308497.29737 
     571             28.55000           1725.05723          -3816.12920          -2091.07198         367169.10021 
     572             28.60000           1628.87013          -3718.88555          -2090.01541         412208.29185 
     573             28.65000           1567.67500          -3657.23197          -2089.55697         439497.51258 
     574             28.70000           1548.18862          -3638.91508          -2090.72646         458426.20169 
     575             28.75000           1562.73613          -3654.14631          -2091.41017         470063.09060 
     576             28.80000           1597.48805          -3689.96010          -2092.47205         459511.93385 
     577             28.85000           1639.18476          -3732.45076          -2093.26600         441888.63276 
     578             28.90000           1678.14219          -3770.92102          -2092.77883         418349.83755 
     579             28.95000           1710.94246          -3804.19000          -2093.24754         395856.24107 
     580             29.00000           1733.70018          -3827.63780          -2093.93763         378660.12376 
     581             29.05000           1740.96830          -3835.82580          -2094.85749         381782.21523 
     582             29.10000           1735.41260          -3828.38624          -2092.97364         397864.22300 
     583             29.15000           1725.41127          -3818.13392          -2092.72265         422701.63585 
     584             29.20000           1715.12623          -3807.77882          -2092.65259         431697.29314 
     585             29.25000           1706.84191          -3799.35021          -2092.50831         419259.05800 
     586             29.30000           1704.42102          -3795.89332          -2091.47230         388027.58743 
     587             29.35000           1713.40322          -3804.78239          -2091.37917         339095.12163 
     588             29.40000           1739.15271          -3830.63584          -2091.48313         295206.28264 
     589             29.45000           1781.05512          -3873.15709          -2092.10198         239295.57883 
     590             29.50000           1825.51094          -3920.00160          -2094.49066         178980.34483 
     591             29.55000           1850.51076          -3946.30534          -2095.79459         130402.87065 
     592             29.60000           1839.23426          -3934.72912          -2095.49485         101045.96067 
     593             29.65000           1790.99353          -3885.81737          -2094.82384          72915.53808 
     594             29.70000           1718.57660          -3811.88367          -2093.30707          48875.04574 
     595             29.75000           1641.27888          -3733.37872          -2092.09985          24338.40137 
     596             29.80000           1576.40110          -3667.88693          -2091.48583           3466.81304 
     597             29.85000           1535.09343          -3626.34843          -2091.25501         -24881.79662 
     598             29.90000           1520.90507          -3612.14800          -2091.24294         -52628.64468 
     599             29.95000           1525.48441          -3618.41783          -2092.93341         -63044.71858 
     600             30.00000           1532.09872          -3625.92176          -2093.82304         -81607.09362 
     601             30.05000           1524.53411          -3619.13367          -2094.59956        -106202.20151 
     602             30.10000           1495.01420          -3588.47926          -2093.46506        -131701.91256 
     603             30.15000           1449.36534          -3541.75376          -2092.38842        -152523.87826 
     604             30.20000           1401.93001          -3493.72668          -2091.79666        -166826.00188 
     605             30.25000           1361.89670          -3453.34323          -2091.44654        -178116.68810 
     606             30.30000           1332.43767          -3423.50209          -2091.06443        -199246.42213 
     607             30.35000           1317.31504          -3408.30477          -2090.98973        -224518.86327 
     608             30.40000           1316.51958          -3407.83061          -2091.31103        -261113.04848 
     609             30.45000           1325.73805          -3417.34685          -2091.60881        -304169.17298 
     610             30.50000           1339.17770          -3431.03753          -2091.85983        -349079.55835 
     611             30.55000           1352.77067          -3444.30656          -2091.53588        -386381.82106 
     612             30.60000           1363.38550          -3455.19520          -2091.80970        -413685.05075 
     613             30.65000           1366.32211          -3458.39535          -2092.07323        -425948.48381 
     614             30.70000           1356.01448          -3448.59591          -2092.58143        -420529.51269 
     615             30.75000           1325.19812          -3418.57665          -2093.37854        -390988.52460 
     616             30.80000           1273.66949          -3365.87168          -2092.20219        -337495.55901 
     617             30.85000           1211.97260          -3303.43018          -2091.45758        -281875.80937 
     618             30.90000           1152.78888          -3243.55521          -2090.76633        -235217.49809 
     619             30.95000           1107.03394          -3197.41832          -2090.38438        -200928.60041 
     620             31.00000           1080.29722          -3170.39585          -2090.09862        -165738.73012 
     621             31.05000           1074.94144          -3164.97092          -2090.02948        -147522.50826 
     622             31.10000           1091.94731          -3182.19028          -2090.24297        -151549.51481 
     623             31.15000           1127.94156          -3218.68342          -2090.74186        -176043.10510 
     624             31.20000           1176.09718          -3267.38633          -2091.28915        -218686.47092 
     625             31.25000           1228.29098          -3320.26721          -2091.97623        -260450.72169 
     626             31.30000           1277.50241          -3369.76530          -2092.26289        -297754.94661 
     627             31.35000           1320.69992          -3412.46870          -2091.76878        -336420.23144 
     628             31.40000           1359.45771          -3451.13416          -2091.67645        -365114.12900 
     629             31.45000           1395.16302          -3486.92570          -2091.76268        -386415.55114 
     630             31.50000           1426.36354          -3518.50089          -2092.13735        -403126.37739 
     631             31.55000           1451.61303          -3543.70610          -2092.09307        -418052.94037 
     632             31.60000           1473.86343          -3565.81638          -2091.95295        -418596.93345 
     633             31.65000           1495.07009          -3587.70938          -2092.63929        -408602.13274 
     634             31.70000           1512.22960          -3605.33346          -2093.10386        -383861.28939 
     635             31.75000           1523.19193          -3616.27584          -2093.08391        -357228.81195 
     636             31.80000           1527.25854          -3620.66590          -2093.40736        -331837.12593 
     637             31.85000           1527.02690          -3620.28095          -2093.25405        -289977.66648 
     638             31.90000           1523.80695          -3617.60859          -2093.80164        -233225.81095 
     639             31.95000           1511.16123          -3605.29501          -2094.13378        -162384.57953 
     640             32.00000           1483.68128          -3577.88480          -2094.20352         -90358.81094 
     641             32.05000           1442.90326          -3536.80933          -2093.90608         -14702.37529 
     642             32.10000           1394.54231          -3488.07844          -2093.53613          68660.37236 
     643             32.15000           1349.01186          -3441.92238          -2092.91052         141797.56408 
     644             32.20000           1315.73372          -3408.66964          -2092.93592         216964.87536 
     645             32.25000           1299.13471          -3392.28915          -2093.15444         277045.04482 
     646             32.30000           1300.49319          -3393.87264          -2093.37945         314719.29244 
     647             32.35000           1317.08198          -3411.24934          -2094.16735         341479.75418 
     648             32.40000           1338.94636          -3433.23761          -2094.29126         369386.01082 
     649             32.45000           1356.45747          -3450.99071          -2094.53324         390877.63990 
     650             32.50000           1369.09181          -3463.37736          -2094.28555         394655.69744 
     651             32.55000           1382.87262          -3476.44279          -2093.57017         376894.92656 
     652             32.60000           1407.44233          -3500.55198          -2093.10965         348981.35188 
     653             32.65000           1453.89994          -3547.00954          -2093.10959         311994.71285 
     654             32.70000           1524.63772          -3618.53470          -2093.89699         256033.59770 
     655             32.75000           1608.64033          -3704.02655          -2095.38622         188514.73085 
     656             32.80000           1683.84914          -3781.08024          -2097.23110         128503.75896 
     657             32.85000           1727.79494          -3826.19570          -2098.40076          99524.19595 
     658             32.90000           1724.65043          -3824.07721          -2099.42678          98272.88154 
     659             32.95000           1670.40853          -3768.94282          -2098.53428         110658.13805 
     660             33.00000           1581.05753          -3678.17421          -2097.11667         129295.82728 
     661             33.05000           1481.83842          -3577.13294          -2095.29452         155949.26143 
     662             33.10000           1399.45205          -3493.42839          -2093.97635         177002.51268 
     663             33.15000           1354.17640          -3447.74996          -2093.57356         178895.11796 
     664             33.20000           1352.58197          -3446.43089          -2093.84892         161519.91425 
     665             33.25000           1389.33446          -3484.11816          -2094.78370         126304.24147 
     666             33.30000           1448.15595          -3544.64585          -2096.48990          78734.49759 
     667             33.35000           1505.19957          -3603.17838          -2097.97881          19691.86656 
     668             33.40000           1537.84924          -3636.28014          -2098.43090         -47086.94734 
     669             33.45000           1534.61045          -3633.34091          -2098.73046         -97119.88450 
     670             33.50000           1503.41008          -3601.63514          -2098.22506        -113655.18683 
     671             33.55000           1458.02897          -3555.29637          -2097.26741        -118174.92438 
     672             33.60000           1408.46497          -3505.05486          -2096.58990        -122936.41666 
[...]
    3676            183.80000             78.87019          -2216.33145          -2137.46127          12213.85615 
    3677            183.85000             79.24843          -2216.71200          -2137.46356          21375.73817 
    3678            183.90000             79.82625          -2217.29619          -2137.46994          29775.29179 
    3679            183.95000             80.48396          -2217.97601          -2137.49204          37790.19194 
    3680            184.00000             81.02261          -2218.52309          -2137.50048          45744.93065 
    3681            184.05000             81.28068          -2218.78401          -2137.50333          51339.91984 
    3682            184.10000             81.21102          -2218.70943          -2137.49841          54708.49461 
    3683            184.15000             80.88277          -2218.37060          -2137.48783          54798.70290 
    3684            184.20000             80.46540          -2217.94085          -2137.47545          51550.96754 
    3685            184.25000             80.15408          -2217.62042          -2137.46634          45105.73967 
    3686            184.30000             80.09909          -2217.56197          -2137.46288          36449.63439 
    3687            184.35000             80.32554          -2217.79762          -2137.47207          25642.89982 
    3688            184.40000             80.69564          -2218.18884          -2137.49319          13184.46659 
    3689            184.45000             80.96320          -2218.46276          -2137.49956           1354.48633 
    3690            184.50000             80.96354          -2218.46334          -2137.49980         -10893.83214 
    3691            184.55000             80.71379          -2218.20289          -2137.48910         -23528.67842 
    3692            184.60000             80.38461          -2217.85626          -2137.47165         -35787.99499 
    3693            184.65000             80.24971          -2217.70036          -2137.45065         -46546.50703 
    3694            184.70000             80.56470          -2218.01454          -2137.44985         -54069.72479 
    3695            184.75000             81.35922          -2218.83367          -2137.47446         -58177.52764 
    3696            184.80000             82.37158          -2219.87011          -2137.49853         -58760.08480 
    3697            184.85000             83.27332          -2220.78661          -2137.51330         -55400.61775 
    3698            184.90000             83.80575          -2221.32817          -2137.52241         -48618.03671 
    3699            184.95000             83.83173          -2221.34781          -2137.51608         -39721.56424 
    3700            185.00000             83.44562          -2220.94331          -2137.49769         -29302.80798 
    3701            185.05000             82.92185          -2220.39822          -2137.47637         -17769.73243 
    3702            185.10000             82.57507          -2220.03951          -2137.46445          -5221.91877 
    3703            185.15000             82.60548          -2220.06940          -2137.46393           7888.49257 
    3704            185.20000             83.01825          -2220.49399          -2137.47574          20633.63875 
    3705            185.25000             83.63127          -2221.12896          -2137.49770          32607.30678 
    3706            185.30000             84.08537          -2221.61276          -2137.52740          45540.39147 
    3707            185.35000             84.03000          -2221.56067          -2137.53067          57135.48092 
    3708            185.40000             83.39367          -2220.91035          -2137.51668          65876.17932 
    3709            185.45000             82.40087          -2219.88724          -2137.48637          71739.31457 
    3710            185.50000             81.46863          -2218.92676          -2137.45813          74508.06143 
    3711            185.55000             81.03832          -2218.47639          -2137.43807          73733.34431 
    3712            185.60000             81.41371          -2218.84843          -2137.43472          69643.49369 
    3713            185.65000             82.64775          -2220.09647          -2137.44872          62747.43761 
    3714            185.70000             84.49723          -2221.97762          -2137.48039          53125.53611 
    3715            185.75000             86.48542          -2224.00176          -2137.51634          40756.97868 
    3716            185.80000             88.07186          -2225.61576          -2137.54390          26070.03849 
    3717            185.85000             88.84892          -2226.40258          -2137.55366           9654.03800 
    3718            185.90000             88.73022          -2226.26480          -2137.53457          -6215.23967 
    3719            185.95000             87.92886          -2225.44279          -2137.51393         -21728.67681 
    3720            186.00000             86.78407          -2224.27116          -2137.48710         -35822.67679 
    3721            186.05000             85.58831          -2223.08848          -2137.50018         -46283.27706 
    3722            186.10000             84.46353          -2221.95551          -2137.49197         -53948.76662 
    3723            186.15000             83.49021          -2220.97628          -2137.48606         -59892.87808 
    3724            186.20000             82.76962          -2220.24853          -2137.47891         -63216.88073 
    3725            186.25000             82.41955          -2219.88845          -2137.46890         -64304.21561 
    3726            186.30000             82.58710          -2220.04857          -2137.46147         -63163.69541 
    3727            186.35000             83.37308          -2220.83636          -2137.46328         -59951.19460 
    3728            186.40000             84.72812          -2222.21354          -2137.48543         -54160.88881 
    3729            186.45000             86.38221          -2223.89378          -2137.51157         -45258.90730 
    3730            186.50000             87.91890          -2225.45729          -2137.53839         -34308.12760 
    3731            186.55000             89.02978          -2226.58063          -2137.55085         -19804.69668 
    3732            186.60000             89.53974          -2227.09713          -2137.55739          -4142.59471 
    3733            186.65000             89.34703          -2226.89907          -2137.55204          11878.42155 
    3734            186.70000             88.52684          -2226.06424          -2137.53740          27573.88410 
    3735            186.75000             87.30695          -2224.82463          -2137.51768          42113.69045 
    3736            186.80000             85.96692          -2223.48034          -2137.51342          55327.19653 
    3737            186.85000             84.75144          -2222.24892          -2137.49748          66682.15424 
    3738            186.90000             83.86970          -2221.35903          -2137.48933          74721.18745 
    3739            186.95000             83.45099          -2220.94044          -2137.48945          78962.10336 
    3740            187.00000             83.49694          -2220.99276          -2137.49582          79054.04215 
    3741            187.05000             83.91343          -2221.41833          -2137.50490          74957.23877 
    3742            187.10000             84.56316          -2222.07685          -2137.51370          66823.48255 
    3743            187.15000             85.31249          -2222.83314          -2137.52065          54997.62888 
    3744            187.20000             86.04110          -2223.57213          -2137.53103          41093.80625 
    3745            187.25000             86.63706          -2224.17356          -2137.53650          25593.19071 
    3746            187.30000             87.01354          -2224.55433          -2137.54078           8957.07300 
    3747            187.35000             87.11217          -2224.65456          -2137.54238          -7702.85983 
    3748            187.40000             86.91888          -2224.45158          -2137.53270         -22977.62655 
    3749            187.45000             86.49409          -2224.02349          -2137.52941         -35848.39504 
    3750            187.50000             85.93421          -2223.45662          -2137.52241         -46579.36729 
    3751            187.55000             85.35705          -2222.87026          -2137.51321         -54580.54759 
    3752            187.60000             84.90592          -2222.41303          -2137.50711         -58975.04378 
    3753            187.65000             84.62856          -2222.13316          -2137.50460         -57940.06638 
    3754            187.70000             84.51316          -2222.02061          -2137.50745         -53818.64143 
    3755            187.75000             84.51323          -2222.02983          -2137.51661         -46905.91094 
    3756            187.80000             84.49436          -2222.02045          -2137.52609         -38018.53446 
    3757            187.85000             84.34011          -2221.85984          -2137.51973         -26895.83037 
    3758            187.90000             84.04042          -2221.55549          -2137.51507         -14330.49112 
    3759            187.95000             83.67620          -2221.18242          -2137.50621          -2058.73083 
    3760            188.00000             83.37768          -2220.87565          -2137.49797           9315.17482 
    3761            188.05000             83.26444          -2220.76014          -2137.49570          19072.75089 
    3762            188.10000             83.36906          -2220.87032          -2137.50126          26746.68042 
    3763            188.15000             83.64509          -2221.14668          -2137.50160          33384.56437 
    3764            188.20000             83.97095          -2221.48624          -2137.51529          37955.69971 
    3765            188.25000             84.15464          -2221.68037          -2137.52573          39677.16948 
    3766            188.30000             84.03858          -2221.56722          -2137.52864          38577.61720 
    3767            188.35000             83.56330          -2221.08971          -2137.52641          35977.00493 
    3768            188.40000             82.79384          -2220.30849          -2137.51465          31503.64528 
    3769            188.45000             81.90333          -2219.40543          -2137.50210          25780.21423 
    3770            188.50000             81.09133          -2218.58362          -2137.49230          18985.15239 
    3771            188.55000             80.51029          -2217.99939          -2137.48910          11784.76380 
    3772            188.60000             80.22408          -2217.71473          -2137.49066           4687.56557 
    3773            188.65000             80.21367          -2217.70890          -2137.49524          -2067.35301 
    3774            188.70000             80.41497          -2217.91473          -2137.49976          -8135.34453 
    3775            188.75000             80.76781          -2218.26894          -2137.50112         -12434.15808 
    3776            188.80000             81.22515          -2218.73444          -2137.50929         -15567.00925 
    3777            188.85000             81.72732          -2219.23890          -2137.51158         -16776.63178 
    3778            188.90000             82.21468          -2219.73068          -2137.51600         -16758.04907 
    3779            188.95000             82.61462          -2220.13921          -2137.52458         -15989.58718 
    3780            189.00000             82.79627          -2220.33187          -2137.53561         -14692.58098 
    3781            189.05000             82.59960          -2220.14318          -2137.54358         -13051.82729 
    3782            189.10000             81.91226          -2219.45523          -2137.54297         -11370.69555 
    3783            189.15000             80.78417          -2218.30984          -2137.52567          -8579.95047 
    3784            189.20000             79.43463          -2216.94167          -2137.50704          -5134.31107 
    3785            189.25000             78.16717          -2215.65313          -2137.48596          -1695.87218 
    3786            189.30000             77.26747          -2214.75011          -2137.48264           2889.26184 
    3787            189.35000             76.91635          -2214.39454          -2137.47818           7810.24943 
    3788            189.40000             77.15459          -2214.64379          -2137.48920          12429.80786 
    3789            189.45000             77.85228          -2215.35583          -2137.50354          16476.79032 
    3790            189.50000             78.78554          -2216.30809          -2137.52256          20264.31149 
    3791            189.55000             79.69537          -2217.23228          -2137.53691          22408.42359 
    3792            189.60000             80.36116          -2217.90356          -2137.54240          22724.61525 
    3793            189.65000             80.69568          -2218.23524          -2137.53956          21203.20333 
    3794            189.70000             80.73079          -2218.26469          -2137.53389          18616.59399 
    3795            189.75000             80.55886          -2218.08721          -2137.52835          14909.26551 
    3796            189.80000             80.24377          -2217.78287          -2137.53911          11180.38142 
    3797            189.85000             79.80888          -2217.34294          -2137.53406           8747.00006 
    3798            189.90000             79.25947          -2216.79687          -2137.53740           5875.32315 
    3799            189.95000             78.57566          -2216.11151          -2137.53585           3750.13779 
    3800            190.00000             77.77084          -2215.30194          -2137.53110           1819.65205 
    3801            190.05000             76.92729          -2214.44728          -2137.51999             40.43241 
    3802            190.10000             76.21294          -2213.71930          -2137.50636          -1628.20294 
    3803            190.15000             75.83628          -2213.33143          -2137.49514          -3148.04904 
    3804            190.20000             75.96431          -2213.45644          -2137.49213          -4461.94607 
    3805            190.25000             76.63846          -2214.13883          -2137.50036          -5571.51023 
    3806            190.30000             77.72997          -2215.24829          -2137.51832          -6367.74190 
    3807            190.35000             78.96227          -2216.50288          -2137.54061          -7096.15019 
    3808            190.40000             79.99633          -2217.55592          -2137.55959          -7879.28364 
    3809            190.45000             80.54821          -2218.11538          -2137.56717          -8576.18380 
    3810            190.50000             80.49425          -2218.05726          -2137.56301          -9106.34701 
    3811            190.55000             79.92361          -2217.46161          -2137.53799          -9485.64633 
    3812            190.60000             79.11666          -2216.63578          -2137.51912          -9066.37333 
    3813            190.65000             78.39520          -2215.89897          -2137.50376          -9056.91711 
    3814            190.70000             77.99338          -2215.49118          -2137.49780          -9295.37189 
    3815            190.75000             78.00796          -2215.50975          -2137.50179          -9992.29034 
    3816            190.80000             78.38504          -2215.89715          -2137.51211         -11106.67634 
    3817            190.85000             78.92540          -2216.46984          -2137.54444         -11327.14560 
    3818            190.90000             79.40297          -2216.94891          -2137.54594         -10989.15262 
    3819            190.95000             79.73166          -2217.28300          -2137.55134         -10230.78388 
    3820            191.00000             79.94458          -2217.48749          -2137.54291          -8477.99755 
    3821            191.05000             80.14399          -2217.67977          -2137.53579          -6853.32241 
    3822            191.10000             80.43928          -2217.97269          -2137.53341          -5152.56757 
    3823            191.15000             80.87012          -2218.40631          -2137.53619          -3422.61861 
    3824            191.20000             81.39742          -2218.93971          -2137.54229          -1574.69643 
    3825            191.25000             81.91756          -2219.47692          -2137.55936           1010.27148 
    3826            191.30000             82.26607          -2219.83033          -2137.56426           5469.68613 
    3827            191.35000             82.33084          -2219.89346          -2137.56261          10137.75587 
    3828            191.40000             82.21251          -2219.74736          -2137.53485          16462.10975 
    3829            191.45000             82.11491          -2219.64364          -2137.52873          23314.65117 
    3830            191.50000             82.15687          -2219.68406          -2137.52720          29523.98406 
    3831            191.55000             82.36456          -2219.89211          -2137.52755          34730.37422 
    3832            191.60000             82.72082          -2220.25475          -2137.53393          39373.36265 
    3833            191.65000             83.15478          -2220.69604          -2137.54126          42151.00052 
    3834            191.70000             83.56038          -2221.10510          -2137.54472          42920.22852 
    3835            191.75000             83.87185          -2221.41650          -2137.54465          41579.85505 
    3836            191.80000             84.09016          -2221.63161          -2137.54145          38377.52184 
    3837            191.85000             84.27191          -2221.80831          -2137.53640          32537.99334 
    3838            191.90000             84.49482          -2222.02715          -2137.53233          24267.78957 
    3839            191.95000             84.82238          -2222.35374          -2137.53136          13920.40284 
    3840            192.00000             85.29999          -2222.82245          -2137.52246           2844.38152 
    3841            192.05000             85.91964          -2223.45126          -2137.53161          -8565.42592 
    3842            192.10000             86.58096          -2224.12017          -2137.53921         -20162.60166 
    3843            192.15000             87.16877          -2224.71171          -2137.54293         -31858.48344 
    3844            192.20000             87.63128          -2225.17303          -2137.54175         -43195.40904 
    3845            192.25000             87.98927          -2225.52704          -2137.53776         -53593.03342 
    3846            192.30000             88.30513          -2225.83974          -2137.53461         -62470.95207 
    3847            192.35000             88.56932          -2226.13120          -2137.56188         -67967.40893 
Loop time: fjslfs
fjdslfjslfhlskjfh ksfhsjklfhs
fjfsldfjskf
sg
sg
fg
sf
af
gsfjgskljkafjldsf
sf
sdfjsldkfsjlkfme
sgksjhfljsjalf
v uaofh sdkf
afdkajf
adfj lsjslkjlkf
aedfja ;lfjaosihfa
fdmjls  
a jal a jadf a
